# vtk DataFile Version 3.0
vtk output
ASCII
DATASET POLYDATA
POINTS 42 float
153.682 118.121 55.9895 152.552 112.596 63.5124 143.673 111.14 60.0702 
145.725 116.378 51.7278 146.175 122.987 61.2866 153.095 110.025 51.3683 
152.373 104.413 58.0866 145.079 120.471 65.1589 153.278 122.795 64.5121 
137.824 116.779 58.6026 143.471 108.764 53.1989 159.146 111.875 59.1939 
145.218 123.415 64.0434 150.004 124.215 66.8071 150.654 126.109 64.7271 
140.76 121.179 59.1818 139.818 119.018 62.3108 157.464 109.543 54.9476 
157.379 106.455 58.669 153.708 105.679 53.9186 147.877 106.177 54.9166 
148.541 108.988 50.947 150.57 118.19 52.8374 145.174 119.828 55.979 
149.949 121.047 59.1923 154.367 114.991 52.2364 149.546 114.125 48.8304 
148.413 111.547 62.7787 148.489 117.674 65.1933 143.188 115.153 63.6494 
148.104 107.287 59.0372 153.75 107.096 62.0086 156.496 116.405 61.384 
157.539 115.4 56.9916 153.779 120.649 60.5918 153.198 118.064 64.2924 
157.051 111.452 62.5494 140.972 116.795 54.7579 143.809 112.348 50.8978 
139.399 111.396 55.5581 141.913 108.316 56.6689 138.679 113.05 60.0147 

POLYGONS 80 320
3 4 14 12 
3 12 13 7 
3 14 8 13 
3 12 14 13 
3 4 12 15 
3 15 16 9 
3 12 7 16 
3 15 12 16 
3 5 19 17 
3 17 18 11 
3 19 6 18 
3 17 19 18 
3 5 21 19 
3 19 20 6 
3 21 10 20 
3 19 21 20 
3 0 24 22 
3 22 23 3 
3 24 4 23 
3 22 24 23 
3 0 22 25 
3 25 26 5 
3 22 3 26 
3 25 22 26 
3 2 29 27 
3 27 28 1 
3 29 7 28 
3 27 29 28 
3 2 27 30 
3 30 31 6 
3 27 1 31 
3 30 27 31 
3 8 34 32 
3 32 33 11 
3 34 0 33 
3 32 34 33 
3 8 32 35 
3 35 36 1 
3 32 11 36 
3 35 32 36 
3 9 39 37 
3 37 38 3 
3 39 10 38 
3 37 39 38 
3 9 41 39 
3 39 40 10 
3 41 2 40 
3 39 41 40 
3 8 14 34 
3 34 24 0 
3 14 4 24 
3 34 14 24 
3 11 33 17 
3 17 25 5 
3 33 0 25 
3 17 33 25 
3 4 15 23 
3 23 37 3 
3 15 9 37 
3 23 15 37 
3 5 26 21 
3 21 38 10 
3 26 3 38 
3 21 26 38 
3 7 13 28 
3 28 35 1 
3 13 8 35 
3 28 13 35 
3 6 31 18 
3 18 36 11 
3 31 1 36 
3 18 31 36 
3 7 29 16 
3 16 41 9 
3 29 2 41 
3 16 29 41 
3 6 20 30 
3 30 40 2 
3 20 10 40 
3 30 20 40 

POINT_DATA 42
VECTORS velocity double
0 0 0 0 0 0 0 0 0 
0 0 0 0 0 0 0 0 0 
0 0 0 0 0 0 0 0 0 
0 0 0 0 0 0 0 0 0 
0 0 0 0 0 0 0 0 0 
0 0 0 0 0 0 0 0 0 
0 0 0 0 0 0 0 0 0 
0 0 0 0 0 0 0 0 0 
0 0 0 0 0 0 0 0 0 
0 0 0 0 0 0 0 0 0 
0 0 0 0 0 0 0 0 0 
0 0 0 0 0 0 0 0 0 
0 0 0 0 0 0 0 0 0 
0 0 0 0 0 0 0 0 0 

